<?xml version="1.0" encoding="UTF-8"?>

<!-- generated on 2025-06-28 18:56:32 by Eclipse SUMO GUI Version 1.23.1
<sumoConfiguration xmlns:xsi="http://www.w3.org/2001/XMLSchema-instance" xsi:noNamespaceSchemaLocation="http://sumo.dlr.de/xsd/sumoConfiguration.xsd">

    <input>
        <net-file value="data/raw/sumo/changi.net.xml"/>
        <route-files value="data/raw/sumo/changi_full.rou.xml"/>
    </input>

    <output>
        <fcd-output value="data/raw/sumo/changi_full_fcd.xml"/>
        <tripinfo-output value="data/raw/sumo/changi_full.tripinfo.xml"/>
    </output>

    <time>
        <begin value="0"/>
        <end value="14400"/>
    </time>

    <report>
        <verbose value="true"/>
        <no-step-log value="true"/>
    </report>

</sumoConfiguration>
-->

<tripinfos xmlns:xsi="http://www.w3.org/2001/XMLSchema-instance" xsi:noNamespaceSchemaLocation="http://sumo.dlr.de/xsd/tripinfo_file.xsd">
    <tripinfo id="bg0" depart="1.00" departLane="638919641_0" departPos="5.10" departSpeed="0.00" departDelay="0.00" arrival="7.00" arrivalLane="638919641_0" arrivalPos="44.78" arrivalSpeed="11.06" duration="6.00" routeLength="39.68" waitingTime="0.00" waitingCount="0" stopTime="0.00" timeLoss="3.70" rerouteNo="0" devices="tripinfo_bg0 fcd_bg0" vType="car" speedFactor="1.06" vaporized=""/>
    <tripinfo id="bg3" depart="8.00" departLane="635695668#1_0" departPos="2.26" departSpeed="0.00" departDelay="0.00" arrival="9.00" arrivalLane="635695668#1_0" arrivalPos="2.26" arrivalSpeed="1.38" duration="1.00" routeLength="0.00" waitingTime="0.00" waitingCount="0" stopTime="0.00" timeLoss="0.92" rerouteNo="0" devices="tripinfo_bg3 fcd_bg3" vType="bus" speedFactor="1.01" vaporized=""/>
    <tripinfo id="bg7" depart="29.00" departLane="539002979_0" departPos="0.20" departSpeed="0.00" departDelay="0.00" arrival="30.00" arrivalLane="539002979_0" arrivalPos="0.20" arrivalSpeed="2.13" duration="1.00" routeLength="0.00" waitingTime="0.00" waitingCount="0" stopTime="0.00" timeLoss="0.82" rerouteNo="0" devices="tripinfo_bg7 fcd_bg7" vType="bus" speedFactor="0.83" vaporized=""/>
    <tripinfo id="bg19" depart="69.00" departLane="223860416#2_0" departPos="5.08" departSpeed="0.00" departDelay="0.00" arrival="70.00" arrivalLane="223860416#2_0" arrivalPos="5.08" arrivalSpeed="2.60" duration="1.00" routeLength="0.00" waitingTime="0.00" waitingCount="0" stopTime="0.00" timeLoss="0.79" rerouteNo="0" devices="tripinfo_bg19 fcd_bg19" vType="car" speedFactor="0.88" vaporized=""/>
    <tripinfo id="bg16" depart="64.00" departLane="-633811840_0" departPos="5.10" departSpeed="0.00" departDelay="0.00" arrival="71.00" arrivalLane="-633811840_0" arrivalPos="54.87" arrivalSpeed="13.64" duration="7.00" routeLength="49.77" waitingTime="0.00" waitingCount="0" stopTime="0.00" timeLoss="2.71" rerouteNo="0" devices="tripinfo_bg16 fcd_bg16" vType="car" speedFactor="0.99" vaporized=""/>
    <tripinfo id="bg17" depart="64.00" departLane="670622348_0" departPos="8.10" departSpeed="0.00" departDelay="0.00" arrival="72.00" arrivalLane="670622348_0" arrivalPos="59.20" arrivalSpeed="12.06" duration="8.00" routeLength="51.10" waitingTime="0.00" waitingCount="0" stopTime="0.00" timeLoss="3.37" rerouteNo="0" devices="tripinfo_bg17 fcd_bg17" vType="truck" speedFactor="0.93" vaporized=""/>
    <tripinfo id="bg21" depart="76.00" departLane="173010429#0_0" departPos="2.10" departSpeed="0.00" departDelay="0.00" arrival="80.00" arrivalLane="173010429#0_0" arrivalPos="22.42" arrivalSpeed="9.83" duration="4.00" routeLength="20.32" waitingTime="0.00" waitingCount="0" stopTime="0.00" timeLoss="3.06" rerouteNo="0" devices="tripinfo_bg21 fcd_bg21" vType="motorcycle" speedFactor="0.94" vaporized=""/>
    <tripinfo id="bg25" depart="93.00" departLane="791987518_0" departPos="8.10" departSpeed="0.00" departDelay="0.00" arrival="100.00" arrivalLane="791987518_0" arrivalPos="52.55" arrivalSpeed="9.97" duration="7.00" routeLength="44.45" waitingTime="0.00" waitingCount="0" stopTime="0.00" timeLoss="2.60" rerouteNo="0" devices="tripinfo_bg25 fcd_bg25" vType="truck" speedFactor="0.97" vaporized=""/>
    <tripinfo id="bg28" depart="103.00" departLane="-633197832_0" departPos="5.10" departSpeed="0.00" departDelay="0.00" arrival="109.00" arrivalLane="-633197832_0" arrivalPos="38.30" arrivalSpeed="10.85" duration="6.00" routeLength="33.20" waitingTime="0.00" waitingCount="0" stopTime="0.00" timeLoss="2.90" rerouteNo="0" devices="tripinfo_bg28 fcd_bg28" vType="car" speedFactor="0.87" vaporized=""/>
    <tripinfo id="bg27" depart="100.00" departLane="634275476_0" departPos="8.10" departSpeed="0.00" departDelay="0.00" arrival="113.00" arrivalLane="634275476_0" arrivalPos="152.90" arrivalSpeed="15.59" duration="13.00" routeLength="144.80" waitingTime="0.00" waitingCount="0" stopTime="0.00" timeLoss="3.89" rerouteNo="0" devices="tripinfo_bg27 fcd_bg27" vType="truck" speedFactor="0.83" vaporized=""/>
    <tripinfo id="bg14" depart="53.00" departLane="-646450914#1_0" departPos="12.10" departSpeed="0.00" departDelay="0.00" arrival="115.00" arrivalLane="22981700_0" arrivalPos="202.50" arrivalSpeed="14.25" duration="62.00" routeLength="661.20" waitingTime="0.00" waitingCount="0" stopTime="0.00" timeLoss="14.16" rerouteNo="0" devices="tripinfo_bg14 fcd_bg14" vType="bus" speedFactor="1.05" vaporized=""/>
    <tripinfo id="bg29" depart="120.00" departLane="745373495_0" departPos="5.10" departSpeed="0.00" departDelay="0.00" arrival="124.00" arrivalLane="745373495_0" arrivalPos="14.20" arrivalSpeed="7.26" duration="4.00" routeLength="9.10" waitingTime="0.00" waitingCount="0" stopTime="0.00" timeLoss="2.74" rerouteNo="0" devices="tripinfo_bg29 fcd_bg29" vType="car" speedFactor="0.92" vaporized=""/>
    <tripinfo id="bg31" depart="125.00" departLane="634715373#1_0" departPos="0.20" departSpeed="0.00" departDelay="0.00" arrival="126.00" arrivalLane="634715373#1_0" arrivalPos="0.20" arrivalSpeed="1.43" duration="1.00" routeLength="0.00" waitingTime="0.00" waitingCount="0" stopTime="0.00" timeLoss="0.91" rerouteNo="0" devices="tripinfo_bg31 fcd_bg31" vType="car" speedFactor="1.13" vaporized=""/>
    <tripinfo id="bg10" depart="41.00" departLane="793692536_0" departPos="5.10" departSpeed="0.00" departDelay="0.00" arrival="155.00" arrivalLane="712397873#1_0" arrivalPos="173.73" arrivalSpeed="17.74" duration="114.00" routeLength="2067.76" waitingTime="0.00" waitingCount="0" stopTime="0.00" timeLoss="8.92" rerouteNo="0" devices="tripinfo_bg10 fcd_bg10" vType="car" speedFactor="0.94" vaporized=""/>
    <tripinfo id="bg42" depart="163.00" departLane="-633197831_0" departPos="12.10" departSpeed="0.00" departDelay="0.00" arrival="165.00" arrivalLane="-633197831_0" arrivalPos="18.01" arrivalSpeed="4.53" duration="2.00" routeLength="5.91" waitingTime="0.00" waitingCount="0" stopTime="0.00" timeLoss="1.45" rerouteNo="0" devices="tripinfo_bg42 fcd_bg42" vType="bus" speedFactor="0.90" vaporized=""/>
    <tripinfo id="bg48" depart="180.00" departLane="470919056#1_0" departPos="8.10" departSpeed="0.00" departDelay="0.00" arrival="185.00" arrivalLane="470919056#1_0" arrivalPos="28.24" arrivalSpeed="9.28" duration="5.00" routeLength="20.14" waitingTime="0.00" waitingCount="0" stopTime="0.00" timeLoss="3.09" rerouteNo="0" devices="tripinfo_bg48 fcd_bg48" vType="truck" speedFactor="1.04" vaporized=""/>
    <tripinfo id="bg49" depart="181.00" departLane="-645273059_0" departPos="12.10" departSpeed="0.00" departDelay="0.00" arrival="185.00" arrivalLane="-645273059_0" arrivalPos="25.76" arrivalSpeed="7.11" duration="4.00" routeLength="13.66" waitingTime="0.00" waitingCount="0" stopTime="0.00" timeLoss="2.72" rerouteNo="0" devices="tripinfo_bg49 fcd_bg49" vType="bus" speedFactor="1.04" vaporized=""/>
    <tripinfo id="bg52" depart="184.00" departLane="672203487#0_0" departPos="0.12" departSpeed="0.00" departDelay="0.00" arrival="185.00" arrivalLane="672203487#0_0" arrivalPos="0.12" arrivalSpeed="2.07" duration="1.00" routeLength="0.00" waitingTime="0.00" waitingCount="0" stopTime="0.00" timeLoss="0.84" rerouteNo="0" devices="tripinfo_bg52 fcd_bg52" vType="car" speedFactor="0.90" vaporized=""/>
    <tripinfo id="bg46" depart="176.00" departLane="645281002_0" departPos="2.10" departSpeed="0.00" departDelay="0.00" arrival="187.00" arrivalLane="645281002_0" arrivalPos="97.88" arrivalSpeed="13.25" duration="11.00" routeLength="95.78" waitingTime="0.00" waitingCount="0" stopTime="0.00" timeLoss="3.28" rerouteNo="0" devices="tripinfo_bg46 fcd_bg46" vType="motorcycle" speedFactor="0.96" vaporized=""/>
    <tripinfo id="bg5" depart="13.00" departLane="643363484#1_0" departPos="5.10" departSpeed="0.00" departDelay="0.00" arrival="196.00" arrivalLane="518683063#1_0" arrivalPos="37.28" arrivalSpeed="14.02" duration="183.00" routeLength="1558.72" waitingTime="46.00" waitingCount="2" stopTime="0.00" timeLoss="78.15" rerouteNo="0" devices="tripinfo_bg5 fcd_bg5" vType="car" speedFactor="1.08" vaporized=""/>
    <tripinfo id="bg37" depart="145.00" departLane="465002402#1_0" departPos="6.13" departSpeed="0.00" departDelay="0.00" arrival="198.00" arrivalLane="641143982#0_0" arrivalPos="0.20" arrivalSpeed="13.81" duration="53.00" routeLength="665.27" waitingTime="0.00" waitingCount="0" stopTime="0.00" timeLoss="5.88" rerouteNo="0" devices="tripinfo_bg37 fcd_bg37" vType="bus" speedFactor="1.02" vaporized=""/>
    <tripinfo id="bg15" depart="55.00" departLane="655682819#1_0" departPos="0.20" departSpeed="0.00" departDelay="0.00" arrival="205.00" arrivalLane="1149726132#4_0" arrivalPos="52.71" arrivalSpeed="14.76" duration="150.00" routeLength="2032.52" waitingTime="0.00" waitingCount="0" stopTime="0.00" timeLoss="18.88" rerouteNo="0" devices="tripinfo_bg15 fcd_bg15" vType="truck" speedFactor="1.12" vaporized=""/>
    <tripinfo id="bg43" depart="164.00" departLane="530362932_0" departPos="5.10" departSpeed="0.00" departDelay="0.00" arrival="207.00" arrivalLane="530362932_0" arrivalPos="540.34" arrivalSpeed="13.75" duration="43.00" routeLength="535.24" waitingTime="0.00" waitingCount="0" stopTime="0.00" timeLoss="4.95" rerouteNo="0" devices="tripinfo_bg43 fcd_bg43" vType="car" speedFactor="1.03" vaporized=""/>
    <tripinfo id="bg55" depart="203.00" departLane="672203487#1_0" departPos="8.10" departSpeed="0.00" departDelay="0.00" arrival="211.00" arrivalLane="672203487#1_0" arrivalPos="64.09" arrivalSpeed="10.67" duration="8.00" routeLength="55.99" waitingTime="0.00" waitingCount="0" stopTime="0.00" timeLoss="2.73" rerouteNo="0" devices="tripinfo_bg55 fcd_bg55" vType="truck" speedFactor="0.85" vaporized=""/>
    <tripinfo id="bg60" depart="218.00" departLane="-635272935_0" departPos="0.12" departSpeed="0.00" departDelay="0.00" arrival="219.00" arrivalLane="-635272935_0" arrivalPos="0.12" arrivalSpeed="1.75" duration="1.00" routeLength="0.00" waitingTime="0.00" waitingCount="0" stopTime="0.00" timeLoss="0.87" rerouteNo="0" devices="tripinfo_bg60 fcd_bg60" vType="car" speedFactor="1.00" vaporized=""/>
    <tripinfo id="bg58" depart="213.00" departLane="-721872385#0_0" departPos="5.10" departSpeed="0.00" departDelay="0.00" arrival="243.00" arrivalLane="-721872385#0_0" arrivalPos="356.69" arrivalSpeed="13.31" duration="30.00" routeLength="351.59" waitingTime="0.00" waitingCount="0" stopTime="0.00" timeLoss="4.28" rerouteNo="0" devices="tripinfo_bg58 fcd_bg58" vType="car" speedFactor="1.02" vaporized=""/>
    <tripinfo id="bg66" depart="258.00" departLane="469790797#1_0" departPos="4.96" departSpeed="0.00" departDelay="0.00" arrival="259.00" arrivalLane="469790797#1_0" arrivalPos="4.96" arrivalSpeed="2.50" duration="1.00" routeLength="0.00" waitingTime="0.00" waitingCount="0" stopTime="0.00" timeLoss="0.81" rerouteNo="0" devices="tripinfo_bg66 fcd_bg66" vType="truck" speedFactor="0.97" vaporized=""/>
    <tripinfo id="bg63" depart="240.00" departLane="166975173_0" departPos="2.10" departSpeed="0.00" departDelay="0.00" arrival="260.00" arrivalLane="166975173_0" arrivalPos="313.04" arrivalSpeed="21.70" duration="20.00" routeLength="310.94" waitingTime="0.00" waitingCount="0" stopTime="0.00" timeLoss="5.76" rerouteNo="0" devices="tripinfo_bg63 fcd_bg63" vType="motorcycle" speedFactor="1.14" vaporized=""/>
    <tripinfo id="bg65" depart="257.00" departLane="634775635_0" departPos="5.10" departSpeed="0.00" departDelay="0.00" arrival="265.00" arrivalLane="634775635_0" arrivalPos="69.75" arrivalSpeed="14.09" duration="8.00" routeLength="64.65" waitingTime="0.00" waitingCount="0" stopTime="0.00" timeLoss="3.30" rerouteNo="0" devices="tripinfo_bg65 fcd_bg65" vType="car" speedFactor="1.02" vaporized=""/>
    <tripinfo id="bg67" depart="263.00" departLane="539755571#0_0" departPos="5.10" departSpeed="0.00" departDelay="0.00" arrival="265.00" arrivalLane="539755571#0_0" arrivalPos="8.14" arrivalSpeed="2.97" duration="2.00" routeLength="3.04" waitingTime="0.00" waitingCount="0" stopTime="0.00" timeLoss="1.78" rerouteNo="0" devices="tripinfo_bg67 fcd_bg67" vType="car" speedFactor="1.08" vaporized=""/>
    <tripinfo id="bg11" depart="47.00" departLane="530362932_0" departPos="2.10" departSpeed="0.00" departDelay="0.00" arrival="271.00" arrivalLane="23149902_4" arrivalPos="306.18" arrivalSpeed="15.93" duration="224.00" routeLength="2544.47" waitingTime="0.00" waitingCount="0" stopTime="0.00" timeLoss="16.74" rerouteNo="0" devices="tripinfo_bg11 fcd_bg11" vType="motorcycle" speedFactor="0.86" vaporized=""/>
    <tripinfo id="bg68" depart="271.00" departLane="633248598#1_0" departPos="7.78" departSpeed="0.00" departDelay="0.00" arrival="272.00" arrivalLane="633248598#1_0" arrivalPos="7.78" arrivalSpeed="2.02" duration="1.00" routeLength="0.00" waitingTime="0.00" waitingCount="0" stopTime="0.00" timeLoss="0.89" rerouteNo="0" devices="tripinfo_bg68 fcd_bg68" vType="truck" speedFactor="1.12" vaporized=""/>
    <tripinfo id="bg72" depart="295.00" departLane="119687387#0_0" departPos="12.10" departSpeed="0.00" departDelay="0.00" arrival="300.00" arrivalLane="119687387#0_0" arrivalPos="29.82" arrivalSpeed="8.55" duration="5.00" routeLength="17.72" waitingTime="0.00" waitingCount="0" stopTime="0.00" timeLoss="2.89" rerouteNo="0" devices="tripinfo_bg72 fcd_bg72" vType="bus" speedFactor="0.88" vaporized=""/>
    <tripinfo id="bg71" depart="289.00" departLane="-1223186708#0_0" departPos="8.10" departSpeed="0.00" departDelay="0.00" arrival="302.00" arrivalLane="-1223186708#0_0" arrivalPos="133.00" arrivalSpeed="12.84" duration="13.00" routeLength="124.90" waitingTime="0.00" waitingCount="0" stopTime="0.00" timeLoss="3.38" rerouteNo="0" devices="tripinfo_bg71 fcd_bg71" vType="truck" speedFactor="0.94" vaporized=""/>
    <tripinfo id="bg83" depart="325.00" departLane="646359835_0" departPos="12.10" departSpeed="0.00" departDelay="0.00" arrival="327.00" arrivalLane="646359835_0" arrivalPos="17.24" arrivalSpeed="3.86" duration="2.00" routeLength="5.14" waitingTime="0.00" waitingCount="0" stopTime="0.00" timeLoss="1.54" rerouteNo="0" devices="tripinfo_bg83 fcd_bg83" vType="bus" speedFactor="0.96" vaporized=""/>
    <tripinfo id="bg74" depart="299.00" departLane="468685546#1_0" departPos="5.10" departSpeed="0.00" departDelay="0.00" arrival="329.00" arrivalLane="468685546#1_0" arrivalPos="379.10" arrivalSpeed="14.39" duration="30.00" routeLength="374.00" waitingTime="0.00" waitingCount="0" stopTime="0.00" timeLoss="4.64" rerouteNo="0" devices="tripinfo_bg74 fcd_bg74" vType="car" speedFactor="0.91" vaporized=""/>
    <tripinfo id="bg85" depart="341.00" departLane="635282834_0" departPos="4.59" departSpeed="0.00" departDelay="0.00" arrival="342.00" arrivalLane="635282834_0" arrivalPos="4.59" arrivalSpeed="2.37" duration="1.00" routeLength="0.00" waitingTime="0.00" waitingCount="0" stopTime="0.00" timeLoss="0.83" rerouteNo="0" devices="tripinfo_bg85 fcd_bg85" vType="car" speedFactor="1.03" vaporized=""/>
    <tripinfo id="bg70" depart="286.00" departLane="646392137#1_0" departPos="5.10" departSpeed="0.00" departDelay="0.00" arrival="357.00" arrivalLane="646392137#1_0" arrivalPos="1230.66" arrivalSpeed="18.70" duration="71.00" routeLength="1225.56" waitingTime="0.00" waitingCount="0" stopTime="0.00" timeLoss="6.51" rerouteNo="0" devices="tripinfo_bg70 fcd_bg70" vType="car" speedFactor="0.99" vaporized=""/>
    <tripinfo id="bg89" depart="365.00" departLane="1057560063#0_0" departPos="0.20" departSpeed="0.00" departDelay="0.00" arrival="366.00" arrivalLane="1057560063#0_0" arrivalPos="0.20" arrivalSpeed="1.83" duration="1.00" routeLength="0.00" waitingTime="0.00" waitingCount="0" stopTime="0.00" timeLoss="0.85" rerouteNo="0" devices="tripinfo_bg89 fcd_bg89" vType="car" speedFactor="1.09" vaporized=""/>
    <tripinfo id="bg54" depart="194.00" departLane="22617510_0" departPos="5.10" departSpeed="0.00" departDelay="0.00" arrival="375.00" arrivalLane="223860412_0" arrivalPos="137.65" arrivalSpeed="11.78" duration="181.00" routeLength="2653.95" waitingTime="0.00" waitingCount="0" stopTime="0.00" timeLoss="14.56" rerouteNo="0" devices="tripinfo_bg54 fcd_bg54" vType="car" speedFactor="0.88" vaporized=""/>
    <tripinfo id="bg91" depart="373.00" departLane="471162361#1_0" departPos="5.10" departSpeed="0.00" departDelay="0.00" arrival="376.00" arrivalLane="471162361#1_0" arrivalPos="12.43" arrivalSpeed="6.05" duration="3.00" routeLength="7.33" waitingTime="0.00" waitingCount="0" stopTime="0.00" timeLoss="2.10" rerouteNo="0" devices="tripinfo_bg91 fcd_bg91" vType="car" speedFactor="1.00" vaporized=""/>
    <tripinfo id="bg92" depart="382.00" departLane="635295556_0" departPos="5.10" departSpeed="0.00" departDelay="0.00" arrival="386.00" arrivalLane="635295556_0" arrivalPos="19.86" arrivalSpeed="7.50" duration="4.00" routeLength="14.76" waitingTime="0.00" waitingCount="0" stopTime="0.00" timeLoss="2.72" rerouteNo="0" devices="tripinfo_bg92 fcd_bg92" vType="car" speedFactor="1.02" vaporized=""/>
    <tripinfo id="bg40" depart="161.00" departLane="111818188#0_0" departPos="0.20" departSpeed="0.00" departDelay="0.00" arrival="397.00" arrivalLane="721872385#2_0" arrivalPos="28.90" arrivalSpeed="15.20" duration="236.00" routeLength="2467.11" waitingTime="61.00" waitingCount="2" stopTime="0.00" timeLoss="90.62" rerouteNo="0" devices="tripinfo_bg40 fcd_bg40" vType="car" speedFactor="1.18" vaporized=""/>
    <tripinfo id="bg96" depart="392.00" departLane="175015663#2_0" departPos="12.10" departSpeed="0.00" departDelay="0.00" arrival="398.00" arrivalLane="175015663#2_0" arrivalPos="47.48" arrivalSpeed="11.58" duration="6.00" routeLength="35.38" waitingTime="0.00" waitingCount="0" stopTime="0.00" timeLoss="3.06" rerouteNo="0" devices="tripinfo_bg96 fcd_bg96" vType="bus" speedFactor="0.98" vaporized=""/>
    <tripinfo id="bg98" depart="396.00" departLane="452033396_0" departPos="12.10" departSpeed="0.00" departDelay="0.00" arrival="398.00" arrivalLane="452033396_0" arrivalPos="17.55" arrivalSpeed="4.29" duration="2.00" routeLength="5.45" waitingTime="0.00" waitingCount="0" stopTime="0.00" timeLoss="1.43" rerouteNo="0" devices="tripinfo_bg98 fcd_bg98" vType="bus" speedFactor="1.04" vaporized=""/>
    <tripinfo id="bg99" depart="398.00" departLane="665745276#0_0" departPos="12.10" departSpeed="0.00" departDelay="0.00" arrival="399.00" arrivalLane="665745276#0_0" arrivalPos="14.46" arrivalSpeed="2.51" duration="1.00" routeLength="2.36" waitingTime="0.00" waitingCount="0" stopTime="0.00" timeLoss="0.82" rerouteNo="0" devices="tripinfo_bg99 fcd_bg99" vType="bus" speedFactor="1.01" vaporized=""/>
    <tripinfo id="bg1" depart="3.00" departLane="469618813#1_0" departPos="5.10" departSpeed="0.00" departDelay="0.00" arrival="403.00" arrivalLane="655660141#1_1" arrivalPos="101.51" arrivalSpeed="14.49" duration="400.00" routeLength="6047.25" waitingTime="0.00" waitingCount="0" stopTime="0.00" timeLoss="31.60" rerouteNo="0" devices="tripinfo_bg1 fcd_bg1" vType="car" speedFactor="0.94" vaporized=""/>
    <tripinfo id="bg8" depart="30.00" departLane="-37584995_0" departPos="2.10" departSpeed="0.00" departDelay="0.00" arrival="408.00" arrivalLane="539002992#1_0" arrivalPos="219.40" arrivalSpeed="17.40" duration="378.00" routeLength="5630.20" waitingTime="21.00" waitingCount="1" stopTime="0.00" timeLoss="65.24" rerouteNo="0" devices="tripinfo_bg8 fcd_bg8" vType="motorcycle" speedFactor="1.05" vaporized=""/>
    <tripinfo id="bg107" depart="421.00" departLane="633811840_0" departPos="12.10" departSpeed="0.00" departDelay="0.00" arrival="428.00" arrivalLane="633811840_0" arrivalPos="53.92" arrivalSpeed="13.85" duration="7.00" routeLength="41.82" waitingTime="0.00" waitingCount="0" stopTime="0.00" timeLoss="3.07" rerouteNo="0" devices="tripinfo_bg107 fcd_bg107" vType="bus" speedFactor="1.01" vaporized=""/>
    <tripinfo id="delivery195" depart="135.00" departLane="-646483942_0" departPos="5.10" departSpeed="0.00" departDelay="0.00" arrival="439.00" arrivalLane="-639972422#1_0" arrivalPos="18.69" arrivalSpeed="9.68" duration="304.00" routeLength="2856.42" waitingTime="91.00" waitingCount="3" stopTime="0.00" timeLoss="134.06" rerouteNo="0" devices="tripinfo_delivery195 fcd_delivery195" vType="delivery" speedFactor="1.15" vaporized=""/>
    <tripinfo id="bg119" depart="451.00" departLane="633271549_0" departPos="12.10" departSpeed="0.00" departDelay="0.00" arrival="461.00" arrivalLane="633271549_0" arrivalPos="101.61" arrivalSpeed="13.60" duration="10.00" routeLength="89.51" waitingTime="0.00" waitingCount="0" stopTime="0.00" timeLoss="3.56" rerouteNo="0" devices="tripinfo_bg119 fcd_bg119" vType="bus" speedFactor="1.01" vaporized=""/>
    <tripinfo id="bg50" depart="182.00" departLane="646206675_0" departPos="0.20" departSpeed="0.00" departDelay="0.00" arrival="464.00" arrivalLane="173488145_0" arrivalPos="136.63" arrivalSpeed="24.60" duration="282.00" routeLength="4069.24" waitingTime="39.00" waitingCount="1" stopTime="0.00" timeLoss="59.81" rerouteNo="0" devices="tripinfo_bg50 fcd_bg50" vType="car" speedFactor="1.09" vaporized=""/>
    <tripinfo id="bg127" depart="467.00" departLane="665722854_0" departPos="12.10" departSpeed="0.00" departDelay="0.00" arrival="471.00" arrivalLane="665722854_0" arrivalPos="28.00" arrivalSpeed="7.94" duration="4.00" routeLength="15.90" waitingTime="0.00" waitingCount="0" stopTime="0.00" timeLoss="2.49" rerouteNo="0" devices="tripinfo_bg127 fcd_bg127" vType="bus" speedFactor="1.01" vaporized=""/>
    <tripinfo id="bg133" depart="495.00" departLane="651959706#3_0" departPos="0.64" departSpeed="0.00" departDelay="0.00" arrival="496.00" arrivalLane="651959706#3_0" arrivalPos="0.64" arrivalSpeed="2.04" duration="1.00" routeLength="0.00" waitingTime="0.00" waitingCount="0" stopTime="0.00" timeLoss="0.85" rerouteNo="0" devices="tripinfo_bg133 fcd_bg133" vType="car" speedFactor="1.00" vaporized=""/>
    <tripinfo id="bg121" depart="457.00" departLane="-882664404#1_0" departPos="5.10" departSpeed="0.00" departDelay="0.00" arrival="508.00" arrivalLane="-882664404#1_0" arrivalPos="667.80" arrivalSpeed="13.76" duration="51.00" routeLength="662.70" waitingTime="0.00" waitingCount="0" stopTime="0.00" timeLoss="5.51" rerouteNo="0" devices="tripinfo_bg121 fcd_bg121" vType="car" speedFactor="1.06" vaporized=""/>
    <tripinfo id="bg134" depart="498.00" departLane="463969357_0" departPos="5.10" departSpeed="0.00" departDelay="0.00" arrival="519.00" arrivalLane="463969357_0" arrivalPos="266.48" arrivalSpeed="16.23" duration="21.00" routeLength="261.38" waitingTime="0.00" waitingCount="0" stopTime="0.00" timeLoss="4.43" rerouteNo="0" devices="tripinfo_bg134 fcd_bg134" vType="car" speedFactor="0.99" vaporized=""/>
    <tripinfo id="bg142" depart="521.00" departLane="37585131_0" departPos="4.47" departSpeed="0.00" departDelay="0.00" arrival="522.00" arrivalLane="37585131_0" arrivalPos="4.47" arrivalSpeed="2.46" duration="1.00" routeLength="0.00" waitingTime="0.00" waitingCount="0" stopTime="0.00" timeLoss="0.90" rerouteNo="0" devices="tripinfo_bg142 fcd_bg142" vType="car" speedFactor="1.02" vaporized=""/>
    <tripinfo id="bg140" depart="519.00" departLane="111818161#0_0" departPos="12.10" departSpeed="0.00" departDelay="0.00" arrival="524.00" arrivalLane="111818161#0_0" arrivalPos="41.38" arrivalSpeed="10.82" duration="5.00" routeLength="29.28" waitingTime="0.00" waitingCount="0" stopTime="0.00" timeLoss="2.84" rerouteNo="0" devices="tripinfo_bg140 fcd_bg140" vType="bus" speedFactor="1.10" vaporized=""/>
    <tripinfo id="bg141" depart="520.00" departLane="583992235#0_0" departPos="12.10" departSpeed="0.00" departDelay="0.00" arrival="528.00" arrivalLane="583992235#0_0" arrivalPos="80.09" arrivalSpeed="15.20" duration="8.00" routeLength="67.99" waitingTime="0.00" waitingCount="0" stopTime="0.00" timeLoss="3.94" rerouteNo="0" devices="tripinfo_bg141 fcd_bg141" vType="bus" speedFactor="1.03" vaporized=""/>
    <tripinfo id="bg77" depart="306.00" departLane="639902937_0" departPos="0.41" departSpeed="0.00" departDelay="0.00" arrival="530.00" arrivalLane="512991771#1_0" arrivalPos="20.99" arrivalSpeed="14.03" duration="224.00" routeLength="2812.15" waitingTime="0.00" waitingCount="0" stopTime="0.00" timeLoss="23.45" rerouteNo="0" devices="tripinfo_bg77 fcd_bg77" vType="car" speedFactor="1.02" vaporized=""/>
    <tripinfo id="bg145" depart="527.00" departLane="-816162459_0" departPos="5.10" departSpeed="0.00" departDelay="0.00" arrival="531.00" arrivalLane="-816162459_0" arrivalPos="21.70" arrivalSpeed="7.29" duration="4.00" routeLength="16.60" waitingTime="0.00" waitingCount="0" stopTime="0.00" timeLoss="2.65" rerouteNo="0" devices="tripinfo_bg145 fcd_bg145" vType="car" speedFactor="1.15" vaporized=""/>
    <tripinfo id="bg149" depart="532.00" departLane="-641143987#2_0" departPos="12.10" departSpeed="0.00" departDelay="0.00" arrival="540.00" arrivalLane="-641143987#2_0" arrivalPos="61.51" arrivalSpeed="13.73" duration="8.00" routeLength="49.41" waitingTime="0.00" waitingCount="0" stopTime="0.00" timeLoss="4.14" rerouteNo="0" devices="tripinfo_bg149 fcd_bg149" vType="bus" speedFactor="1.12" vaporized=""/>
    <tripinfo id="bg146" depart="528.00" departLane="641312722_0" departPos="12.10" departSpeed="0.00" departDelay="0.00" arrival="541.00" arrivalLane="641312722_0" arrivalPos="162.17" arrivalSpeed="16.93" duration="13.00" routeLength="150.07" waitingTime="0.00" waitingCount="0" stopTime="0.00" timeLoss="4.55" rerouteNo="0" devices="tripinfo_bg146 fcd_bg146" vType="bus" speedFactor="1.03" vaporized=""/>
    <tripinfo id="bg153" depart="541.00" departLane="-28229314#3_0" departPos="8.10" departSpeed="0.00" departDelay="0.00" arrival="546.00" arrivalLane="-28229314#3_0" arrivalPos="34.70" arrivalSpeed="9.30" duration="5.00" routeLength="26.60" waitingTime="0.00" waitingCount="0" stopTime="0.00" timeLoss="2.85" rerouteNo="0" devices="tripinfo_bg153 fcd_bg153" vType="truck" speedFactor="0.96" vaporized=""/>
    <tripinfo id="bg90" depart="370.00" departLane="639902676_0" departPos="5.10" departSpeed="0.00" departDelay="0.00" arrival="553.00" arrivalLane="471190118#1_0" arrivalPos="16.13" arrivalSpeed="10.88" duration="183.00" routeLength="2270.33" waitingTime="0.00" waitingCount="0" stopTime="0.00" timeLoss="22.95" rerouteNo="0" devices="tripinfo_bg90 fcd_bg90" vType="car" speedFactor="1.03" vaporized=""/>
    <tripinfo id="bg143" depart="524.00" departLane="49427110_0" departPos="5.10" departSpeed="0.00" departDelay="0.00" arrival="564.00" arrivalLane="49427110_0" arrivalPos="816.60" arrivalSpeed="24.12" duration="40.00" routeLength="811.50" waitingTime="0.00" waitingCount="0" stopTime="0.00" timeLoss="6.67" rerouteNo="0" devices="tripinfo_bg143 fcd_bg143" vType="car" speedFactor="1.06" vaporized=""/>
    <tripinfo id="bg59" depart="213.00" departLane="-639896376#1_0" departPos="2.10" departSpeed="0.00" departDelay="0.00" arrival="565.00" arrivalLane="-633197835#0_0" arrivalPos="106.04" arrivalSpeed="14.82" duration="352.00" routeLength="4296.44" waitingTime="16.00" waitingCount="2" stopTime="0.00" timeLoss="67.29" rerouteNo="0" devices="tripinfo_bg59 fcd_bg59" vType="motorcycle" speedFactor="1.10" vaporized=""/>
    <tripinfo id="bg164" depart="563.00" departLane="469553175_0" departPos="12.10" departSpeed="0.00" departDelay="0.00" arrival="572.00" arrivalLane="469553175_0" arrivalPos="74.84" arrivalSpeed="12.10" duration="9.00" routeLength="62.74" waitingTime="0.00" waitingCount="0" stopTime="0.00" timeLoss="3.28" rerouteNo="0" devices="tripinfo_bg164 fcd_bg164" vType="bus" speedFactor="0.94" vaporized=""/>
    <tripinfo id="bg171" depart="575.00" departLane="713575584_0" departPos="12.10" departSpeed="0.00" departDelay="0.00" arrival="579.00" arrivalLane="713575584_0" arrivalPos="30.94" arrivalSpeed="8.65" duration="4.00" routeLength="18.84" waitingTime="0.00" waitingCount="0" stopTime="0.00" timeLoss="2.07" rerouteNo="0" devices="tripinfo_bg171 fcd_bg171" vType="bus" speedFactor="0.97" vaporized=""/>
    <tripinfo id="bg126" depart="467.00" departLane="721872385#3_0" departPos="5.10" departSpeed="0.00" departDelay="0.00" arrival="581.00" arrivalLane="463969353#5_0" arrivalPos="90.94" arrivalSpeed="14.95" duration="114.00" routeLength="1488.38" waitingTime="0.00" waitingCount="0" stopTime="0.00" timeLoss="23.91" rerouteNo="0" devices="tripinfo_bg126 fcd_bg126" vType="car" speedFactor="1.10" vaporized=""/>
    <tripinfo id="bg56" depart="206.00" departLane="633808404_0" departPos="12.07" departSpeed="0.00" departDelay="0.00" arrival="588.00" arrivalLane="470917020#1_0" arrivalPos="119.30" arrivalSpeed="10.95" duration="382.00" routeLength="3866.53" waitingTime="73.00" waitingCount="3" stopTime="0.00" timeLoss="115.16" rerouteNo="0" devices="tripinfo_bg56 fcd_bg56" vType="bus" speedFactor="0.85" vaporized=""/>